 Gaussian 16, Revision C.01,
 Gaussian 16:  ES64L-G16RevC.01  3-Jul-2019

 ----------------------------------------
 # p opt Freq b3lyp/sdd geom=connectivity
 ----------------------------------------

 -----
 Title
 -----
 Symbolic Z-matrix:
 Charge =  0 Multiplicity = 1

 SCF Done:  E(RB3LYP) =  -78.5768429921     A.U. after    9 cycles
 SCF Done:  E(RB3LYP) =  -78.5781755191     A.U. after    8 cycles
 SCF Done:  E(RB3LYP) =  -78.5782616492     A.U. after    6 cycles
 SCF Done:  E(RB3LYP) =  -78.5782645571     A.U. after    5 cycles
 Optimization completed.
    -- Stationary point found.
 Normal termination of Gaussian 16 at Fri Oct  7 13:36:44 2022.

 ---------------------------------------------------------------
 #N Geom=AllCheck Guess=TCheck SCRF=Check GenChk RB3LYP/SDD Freq
 ---------------------------------------------------------------

 Structure from the checkpoint file:  "/home/orie4521/For_James_M/Gau-870568.chk"
 -----
 Title
 -----
 Charge =  0 Multiplicity = 1

                         Standard orientation:
 ---------------------------------------------------------------------
 Center     Atomic      Atomic             Coordinates (Angstroms)
 Number     Number       Type             X           Y           Z
 ---------------------------------------------------------------------
      1          6           0        0.000000   -0.674226   -0.000000
      2          1           0       -0.925738   -1.246948    0.000000
      3          1           0        0.925693   -1.247003   -0.000000
      4          6           0       -0.000000    0.674226   -0.000000
      5          1           0        0.925738    1.246948    0.000000
      6          1           0       -0.925693    1.247003   -0.000000
 ---------------------------------------------------------------------

 SCF Done:  E(RB3LYP) =  -78.5782645571     A.U. after    1 cycles

 The electronic state is 1-AG.
 Alpha  occ. eigenvalues --  -10.19272 -10.19197  -0.76060  -0.58210  -0.46933
 Alpha  occ. eigenvalues --   -0.42160  -0.35768  -0.27264
 Alpha virt. eigenvalues --   -0.00075   0.13392   0.14883   0.19817   0.25566
 Alpha virt. eigenvalues --    0.26168   0.29258   0.31662   0.31711   0.40196
 Alpha virt. eigenvalues --    0.51514   0.55230   0.61053   0.89363   1.02235

 Mulliken charges:
               1
     1  C   -0.405021
     2  H    0.202504
     3  H    0.202517
     4  C   -0.405021
     5  H    0.202504
     6  H    0.202517
 Sum of Mulliken charges =   0.00000

 Dipole moment (field-independent basis, Debye):
    X=             -0.0000    Y=             -0.0000    Z=              0.0000  Tot=              0.0000
 Quadrupole moment (field-independent basis, Debye-Ang):
   XX=            -11.8989   YY=            -11.7771   ZZ=            -15.7058
   XY=             -0.0001   XZ=             -0.0000   YZ=              0.0000

  Exact polarizability:      17.991       0.000      31.609       0.000       0.000       8.838
 Approx polarizability:      21.847       0.000      48.502      -0.000      -0.000      10.128

                      1                      2                      3
                     BU                     AU                     BG
 Frequencies --    841.8595               999.7746              1009.8635
 Red. masses --      1.0434                 1.1607                 1.5138
 Frc consts  --      0.4357                 0.6836                 0.9096
 IR Inten    --      5.3244               170.6283                 0.0000

                      4                      5                      6
                     AU                     AG                     AG
 Frequencies --   1055.0616              1245.6909              1386.7684
 Red. masses --      1.0078                 1.5192                 1.2505
 Frc consts  --      0.6610                 1.3890                 1.4169
 IR Inten    --      0.0000                 0.0000                 0.0000

                      7                      8                      9
                     BU                     AG                     BU
 Frequencies --   1486.5800              1676.4584              3142.0601
 Red. masses --      1.1122                 2.9365                 1.0476
 Frc consts  --      1.4481                 4.8626                 6.0933
 IR Inten    --     17.8953                 0.0000                18.4524

                     10                     11                     12
                     AG                     AG                     BU
 Frequencies --   3168.1002              3236.7585              3274.7880
 Red. masses --      1.0781                 1.1137                 1.1169
 Frc consts  --      6.3753                 6.8742                 7.0571
 IR Inten    --      0.0000                 0.0000                55.0952

 - Thermochemistry -
 -------------------
 Temperature   298.150 Kelvin.  Pressure   1.00000 Atm.
 Atom     1 has atomic number  6 and mass  12.00000

 Molecular mass:    28.03130 amu.
 Principal axes and moments of inertia in atomic units:
                           1         2         3
     Eigenvalues --    12.33667  61.34521  73.68188
           X            0.00000   1.00000   0.00000
           Y            1.00000  -0.00000   0.00000
           Z           -0.00000  -0.00000   1.00000
 This molecule is an asymmetric top.
 Rotational symmetry number  2.
 Rotational temperatures (Kelvin)      7.02085     1.41191     1.17551
 Rotational constants (GHZ):         146.29081    29.41943    24.49369
 Zero-point vibrational energy     134722.0 (Joules/Mol)
                                   32.19934 (Kcal/Mol)
 Vibrational temperatures:   1211.25  1438.45  1452.97  1518.00  1792.27
          (Kelvin)           1995.25  2138.86  2412.05  4520.72  4558.19
                             4656.97  4711.69

 Zero-point correction=                           0.051313 (Hartree/Particle)
 Thermal correction to Energy=                    0.054344
 Thermal correction to Enthalpy=                  0.055288
 Thermal correction to Gibbs Free Energy=         0.029766
 Sum of electronic and zero-point Energies=            -78.526952
 Sum of electronic and thermal Energies=               -78.523921
 Sum of electronic and thermal Enthalpies=             -78.522976
 Sum of electronic and thermal Free Energies=          -78.548499

                     E (Thermal)             CV                S
                      KCal/Mol        Cal/Mol-Kelvin    Cal/Mol-Kelvin
 Total                   34.101              8.017             53.717
 Electronic               0.000              0.000              0.000
 Translational            0.889              2.981             35.927
 Rotational               0.889              2.981             17.284
 Vibrational             32.324              2.055              0.505

 Optimization completed.
    -- Stationary point found.
 Normal termination of Gaussian 16 at Fri Oct  7 13:38:44 2022.
